============================== echo of input deck ==============================
echo

start CO

PERMANENT_DIR
SCRATCH_DIR

title "CO Frequenzen"

charge 0

geometry
 symmetry c1
   C       -5.40931       -0.39799       -0.00000
   O       -4.35242       -0.41336       -0.00000
end

basis spherical
  * library cc-pVDZ
end

task scf optimize
task scf freq

================================================================================

         Total SCF energy =   -112.741413269074
@ Step       Energy      Delta E   Gmax     Grms     Xrms     Xmax   Walltime
@ ---- ---------------- -------- -------- -------- -------- -------- --------
@    0    -112.74141327  0.0D+00  0.18482  0.18482  0.00000  0.00000     14.6
         Total SCF energy =   -112.735967483101
         Total SCF energy =   -112.750064160848

 Vector    2  Occ=2.000000D+00  E=-1.136154D+01

 Vector    3  Occ=2.000000D+00  E=-1.531616D+00

 Vector    4  Occ=2.000000D+00  E=-8.032704D-01

 Vector    5  Occ=2.000000D+00  E=-6.398556D-01

 Vector    6  Occ=2.000000D+00  E=-6.398556D-01

 Vector    7  Occ=2.000000D+00  E=-5.472925D-01

 Vector    8  Occ=0.000000D+00  E= 1.598084D-01

 Vector    9  Occ=0.000000D+00  E= 1.598084D-01

 Vector   10  Occ=0.000000D+00  E= 3.834211D-01

 Vector   11  Occ=0.000000D+00  E= 6.726824D-01

 Vector   12  Occ=0.000000D+00  E= 6.726824D-01

 Vector   13  Occ=0.000000D+00  E= 7.277807D-01

 Vector   14  Occ=0.000000D+00  E= 1.028425D+00

 Vector   15  Occ=0.000000D+00  E= 1.071040D+00

 Vector   16  Occ=0.000000D+00  E= 1.222232D+00

 Vector   17  Occ=0.000000D+00  E= 1.222232D+00

@    1    -112.75006416 -8.7D-03  0.01608  0.01608  0.03207  0.05555     26.5
         Total SCF energy =   -112.750148164225

 Vector    2  Occ=2.000000D+00  E=-1.135961D+01

 Vector    3  Occ=2.000000D+00  E=-1.534927D+00

 Vector    4  Occ=2.000000D+00  E=-8.037144D-01

 Vector    5  Occ=2.000000D+00  E=-6.419465D-01

 Vector    6  Occ=2.000000D+00  E=-6.419465D-01

 Vector    7  Occ=2.000000D+00  E=-5.466947D-01

 Vector    8  Occ=0.000000D+00  E= 1.617846D-01

 Vector    9  Occ=0.000000D+00  E= 1.617846D-01

 Vector   10  Occ=0.000000D+00  E= 3.837286D-01

 Vector   11  Occ=0.000000D+00  E= 6.728604D-01

 Vector   12  Occ=0.000000D+00  E= 6.728604D-01

 Vector   13  Occ=0.000000D+00  E= 7.282461D-01

 Vector   14  Occ=0.000000D+00  E= 1.030302D+00

 Vector   15  Occ=0.000000D+00  E= 1.076626D+00

 Vector   16  Occ=0.000000D+00  E= 1.221396D+00

 Vector   17  Occ=0.000000D+00  E= 1.221396D+00

         Total SCF energy =   -112.750150613059

 Vector    2  Occ=2.000000D+00  E=-1.135920D+01

 Vector    3  Occ=2.000000D+00  E=-1.535629D+00

 Vector    4  Occ=2.000000D+00  E=-8.038081D-01

 Vector    5  Occ=2.000000D+00  E=-6.423909D-01

 Vector    6  Occ=2.000000D+00  E=-6.423909D-01

 Vector    7  Occ=2.000000D+00  E=-5.465665D-01

 Vector    8  Occ=0.000000D+00  E= 1.622045D-01

 Vector    9  Occ=0.000000D+00  E= 1.622045D-01

 Vector   10  Occ=0.000000D+00  E= 3.837931D-01

 Vector   11  Occ=0.000000D+00  E= 6.728985D-01

 Vector   12  Occ=0.000000D+00  E= 6.728985D-01

 Vector   13  Occ=0.000000D+00  E= 7.283436D-01

 Vector   14  Occ=0.000000D+00  E= 1.030585D+00

 Vector   15  Occ=0.000000D+00  E= 1.077934D+00

 Vector   16  Occ=0.000000D+00  E= 1.221219D+00

 Vector   17  Occ=0.000000D+00  E= 1.221219D+00

@    2    -112.75015061 -8.6D-05  0.00014  0.00014  0.00311  0.00539     38.4
         Total SCF energy =   -112.750150619647

 Vector    2  Occ=2.000000D+00  E=-1.135922D+01

 Vector    3  Occ=2.000000D+00  E=-1.535594D+00

 Vector    4  Occ=2.000000D+00  E=-8.038039D-01

 Vector    5  Occ=2.000000D+00  E=-6.423684D-01

 Vector    6  Occ=2.000000D+00  E=-6.423684D-01

 Vector    7  Occ=2.000000D+00  E=-5.465726D-01

 Vector    8  Occ=0.000000D+00  E= 1.621835D-01

 Vector    9  Occ=0.000000D+00  E= 1.621835D-01

 Vector   10  Occ=0.000000D+00  E= 3.837898D-01

 Vector   11  Occ=0.000000D+00  E= 6.728969D-01

 Vector   12  Occ=0.000000D+00  E= 6.728969D-01

 Vector   13  Occ=0.000000D+00  E= 7.283390D-01

 Vector   14  Occ=0.000000D+00  E= 1.030571D+00

 Vector   15  Occ=0.000000D+00  E= 1.077867D+00

 Vector   16  Occ=0.000000D+00  E= 1.221228D+00

 Vector   17  Occ=0.000000D+00  E= 1.221228D+00

         Total SCF energy =   -112.750150619647
@    3    -112.75015062 -6.6D-09  0.00000  0.00000  0.00003  0.00005     48.2
@    3    -112.75015062 -6.6D-09  0.00000  0.00000  0.00003  0.00005     48.2

 Output coordinates in angstroms (scale by  1.889725989 to convert to a.u.)

  No.       Tag          Charge          X              Y              Z
 ---- ---------------- ---------- -------------- -------------- --------------
    1 C                    6.0000    -0.63050580     0.00916924     0.00000000
    2 O                    8.0000     0.47952152    -0.00697352     0.00000000

         Total SCF energy =   -112.750150619648

 Vector    2  Occ=2.000000D+00  E=-1.135922D+01

 Vector    3  Occ=2.000000D+00  E=-1.535594D+00

 Vector    4  Occ=2.000000D+00  E=-8.038038D-01

 Vector    5  Occ=2.000000D+00  E=-6.423684D-01

 Vector    6  Occ=2.000000D+00  E=-6.423684D-01

 Vector    7  Occ=2.000000D+00  E=-5.465727D-01

 Vector    8  Occ=0.000000D+00  E= 1.621835D-01

 Vector    9  Occ=0.000000D+00  E= 1.621835D-01

 Vector   10  Occ=0.000000D+00  E= 3.837898D-01

 Vector   11  Occ=0.000000D+00  E= 6.728969D-01

 Vector   12  Occ=0.000000D+00  E= 6.728969D-01

 Vector   13  Occ=0.000000D+00  E= 7.283389D-01

 Vector   14  Occ=0.000000D+00  E= 1.030571D+00

 Vector   15  Occ=0.000000D+00  E= 1.077867D+00

 Vector   16  Occ=0.000000D+00  E= 1.221228D+00

 Vector   17  Occ=0.000000D+00  E= 1.221228D+00

       Multipole analysis of the density wrt the origin
       ------------------------------------------------

     L   x y z        total         open         nuclear
     -   - - -        -----         ----         -------
     0   0 0 0     -0.000000      0.000000     14.000000

     1   1 0 0     -0.057365      0.000000      0.100415
     1   0 1 0      0.000834      0.000000     -0.001460
     1   0 0 1      0.000000      0.000000      0.000000

     2   2 0 0     -9.007666      0.000000     15.086863
     2   1 1 0      0.023030      0.000000     -0.219403
     2   1 0 1      0.000000      0.000000      0.000000
     2   0 2 0     -7.424371      0.000000      0.003191
     2   0 1 1      0.000000      0.000000      0.000000

 Zero-Point correction to Energy  =    3.474 kcal/mol  (  0.005537 au)
 Thermal correction to Energy     =    4.955 kcal/mol  (  0.007896 au)
 Thermal correction to Enthalpy   =    5.547 kcal/mol  (  0.008840 au)
 Total Entropy                    =   47.116 cal/mol-K
   - Translational                =   35.907 cal/mol-K (mol. weight =  27.9949)
   - Rotational                   =   11.209 cal/mol-K (symmetry #  =        1)
   - Vibrational                  =    0.000 cal/mol-K
   - Translational                  =    2.979 cal/mol-K
   - Rotational                     =    1.986 cal/mol-K
   - Vibrational                    =    0.002 cal/mol-K
 P.Frequency       -0.00        0.00        0.00        0.00        0.00     2431.57

 Normal Eigenvalue ||           Projected Infra Red Intensities
  Mode   [cm**-1]  || [atomic units] [(debye/angs)**2] [(KM/mol)] [arbitrary]
 ------ ---------- || -------------- ----------------- ---------- -----------
    1       -0.000 ||    0.000000           0.000         0.000       0.000
    2        0.000 ||    0.000062           0.001         0.061       0.025
    3        0.000 ||    0.000047           0.001         0.046       0.019
    4        0.000 ||    0.000062           0.001         0.061       0.025
    5        0.000 ||    0.000047           0.001         0.046       0.019
    6     2431.567 ||    0.148061           3.416       144.337      59.912
 ----------------------------------------------------------------------------

 Total times  cpu:        2.5s     wall:       72.1s
